# vtk DataFile Version 2.0
VTK exported mesh
ASCII
DATASET UNSTRUCTURED_GRID
POINTS 32 double
-1.75717484951 -0.785249650478 -0.745448708534 
-0.466719180346 -0.535328865051 -1.92500138283 
-0.459479510784 -1.68947279453 -1.08425951004 
-1.18173146248 -1.66639268398 0.0750231966376 
-1.4526424408 -0.182198137045 -1.40208077431 
0.259798407555 -2.0196723938 0.285624861717 
-2.0182261467 0.320632338524 0.303701251745 
-1.71969628334 -0.843836128712 0.724590659142 
-0.381934136152 -1.64784550667 1.17405986786 
-0.639332532883 -0.974164485931 1.66363215446 
-1.36900639534 -0.206456109881 1.49902057648 
-0.494327515364 0.679041802883 1.89650225639 
0.466719180346 -0.535328865051 1.92500138283 
-1.78161537647 0.740484476089 -0.673742055893 
-0.807958960533 0.807958960533 -1.71725535393 
-1.11010909081 1.66285085678 -0.449578672647 
0.494327515364 0.679041802883 -1.89650225639 
-0.156873434782 1.68331706524 -1.1302639246 
0.376602262259 2.02509737015 -0.162906393409 
-1.30907893181 1.21283745766 1.04155278206 
-0.562163770199 1.86072397232 0.603583574295 
0.368729442358 1.70834255219 1.02598786354 
0.912738442421 -1.76327824593 -0.599266767502 
0.639332592487 -0.974164426327 -1.66363215446 
1.78161525726 -0.740484714508 -0.673741996288 
1.36900639534 -0.206456109881 -1.49902057648 
1.21283733845 -1.30907893181 1.04155290127 
2.01105308533 -0.336420148611 0.355858296156 
1.4526424408 -0.182198137045 1.40208077431 
1.58933568001 0.998449742794 -0.954401671886 
1.71169579029 1.07444548607 0.534872233868 
0.807958960533 0.807958960533 1.71725535393 
CELLS 60 240
3 0 1 2 
3 3 0 2 
3 4 1 0 
3 5 3 2 
3 6 0 7 
3 3 7 0 
3 8 7 3 
3 9 10 7 
3 9 7 8 
3 8 3 5 
3 11 10 9 
3 12 11 9 
3 6 13 0 
3 13 4 0 
3 13 14 4 
3 14 1 4 
3 13 15 14 
3 14 16 1 
3 15 17 14 
3 15 18 17 
3 19 6 10 
3 10 6 7 
3 11 19 10 
3 15 13 6 
3 19 15 6 
3 20 15 19 
3 19 11 20 
3 11 21 20 
3 20 18 15 
3 5 2 22 
3 23 2 1 
3 22 2 23 
3 1 16 23 
3 24 23 25 
3 24 22 23 
3 16 25 23 
3 26 8 5 
3 12 8 26 
3 12 9 8 
3 22 26 5 
3 24 27 22 
3 27 26 22 
3 28 12 26 
3 27 28 26 
3 17 16 14 
3 16 29 25 
3 17 29 16 
3 18 30 29 
3 18 29 17 
3 25 29 24 
3 29 27 24 
3 29 30 27 
3 31 11 12 
3 21 11 31 
3 20 21 18 
3 30 31 28 
3 31 12 28 
3 31 30 21 
3 18 21 30 
3 30 28 27 
CELL_TYPES 60
5
5
5
5
5
5
5
5
5
5
5
5
5
5
5
5
5
5
5
5
5
5
5
5
5
5
5
5
5
5
5
5
5
5
5
5
5
5
5
5
5
5
5
5
5
5
5
5
5
5
5
5
5
5
5
5
5
5
5
5
POINT_DATA 32
VECTORS displacement double
-0.000149664047545 -5.23137559641e-05 -5.31142457054e-05
0.000133550837076 -8.48431443665e-05 -0.00019130722697
-7.62956737686e-05 0.0011747598564 -1.51246273439e-05
-7.996815345e-06 0.00133471644998 -0.000107216433541
-6.00069949552e-05 -6.25760979336e-05 -0.000124865342233
-0.000311882645056 0.00112472425018 -0.000190418638256
-0.000136949639879 -0.000156437450207 8.98002093294e-05
-4.68137502226e-05 -3.83039816668e-06 0.000250351671051
0.000107573464042 -0.000113135283638 1.98833662542e-05
0.000151732008711 -9.77326920339e-05 0.000152624878407
3.12799646125e-05 -0.00014869713541 0.000203844814735
7.09933750343e-06 -0.000146910826129 0.000122325566941
0.000147206881609 -8.06552309968e-05 0.000112994546562
-0.000151943907066 -0.000181453961319 -4.14123168272e-05
-4.44198301449e-05 -0.000189740672263 -0.000148695748989
-0.000173856580377 -0.000215445940959 -7.09347670999e-05
8.28129070231e-05 -0.000187930739875 -0.000114370514942
-0.000108101339751 -0.000204240483063 -0.00012766171009
-0.000137956259969 -0.000163271842058 -9.52380518729e-05
-0.000134915320655 -0.000227620246331 7.92681673451e-05
-0.000177518515982 -0.000175430824948 -2.13610628178e-05
-0.000111325650777 -0.000108401415589 -2.18156006134e-05
9.75916645672e-06 -0.000127689787421 7.56472415287e-05
0.000261914231184 -0.000156618867209 -2.25147272848e-05
0.000176465950923 -9.95254878996e-05 8.13799227261e-05
0.000186684020651 -0.000132508040216 -2.22071845132e-06
0.000160806914543 -8.90417062111e-05 8.30144745014e-05
0.000147035975183 -6.93415744291e-05 6.81685133286e-05
0.000116625726106 -4.15465204513e-05 6.99521959468e-05
5.5805140868e-05 -0.000156817609203 -5.4187609975e-05
6.8187351492e-06 -7.52240282508e-05 -1.41580824271e-05
1.78087808951e-05 -6.99067241623e-05 4.85053720192e-05
VECTORS crack_base_displacement double
0 0 0
0 0 0
0 0 0
0 0 0
0 0 0
0 0 0
0 0 0
0 0 0
0 0 0
0 0 0
0 0 0
0 0 0
0 0 0
0 0 0
0 0 0
0 0 0
0 0 0
0 0 0
0 0 0
0 0 0
0 0 0
0 0 0
0 0 0
0 0 0
0 0 0
0 0 0
0 0 0
0 0 0
0 0 0
0 0 0
0 0 0
0 0 0
CELL_DATA 60
VECTORS traction double
43695.1445687 -334265.634629 28210.5654223
48101.8491761 -261371.672695 31240.7366196
10184.5097574 -163922.271766 6413.21849785
67196.3714035 9890141.6307 43967.6931504
14871.0963229 -268825.748137 9373.90942737
32477.2367585 -223443.545595 21029.6615851
43204.9935632 -208320.080687 28234.3165649
14926.0702975 -144012.026372 9747.51633555
28460.029062 -152226.715436 18667.4914782
53018.0729455 -181870.613122 34790.8018606
4153.62125018 -159227.793404 2786.18450256
9295.50111262 -180195.498705 6344.19401891
-3047.67876637 -252235.445157 -2415.08890569
1699.14637284 -189432.444958 783.206419561
-12879.0404529 -230372.058654 -8843.17132164
-734.436542109 -216543.428582 -827.063320413
-34066.4123065 -248376.477807 -22730.9638215
-10833.6149975 -257256.691952 -7428.87414892
-39637.3770237 -211004.482892 -26268.4753096
-48315.7573839 -178781.663178 -31821.2255676
-16218.7228005 -245422.851567 -10849.9657906
6052.00979669 -187185.393114 3785.49210786
-18419.6004205 -192344.420493 -12096.0659761
-22364.7215802 -190310.391464 -14958.933572
-44218.9953673 -297964.24832 -29351.2391743
-41270.5948675 -173841.800002 -27202.3317321
-35361.0757324 -166859.390872 -23201.7867167
-46655.5875076 -176641.696113 -30496.0612025
-53783.0958783 -185201.234769 -35372.0276168
57578.2720722 -190840.502684 37789.8004245
33683.7296459 -223166.902078 21891.3986953
50937.7032821 -218594.458247 33363.6895443
10154.3203122 -250894.198236 6448.61800899
14632.148117 -126446.032378 9675.28733855
39311.4981395 -186508.531722 25918.4529943
4766.82252575 -174489.460527 3089.52320937
52554.495367 -161313.516691 34695.4660084
46362.9869536 -186839.884088 30797.1412687
21764.2154708 -107416.854189 14410.1215756
53472.903316 -158637.154093 35305.6281631
26713.937516 -130438.636056 17796.7507174
54883.8505069 -214744.552011 36533.1944777
17641.6157223 -106187.525572 11937.3484434
16446.2431348 -104715.290371 11194.5326815
-31825.560025 -216030.860001 -21112.1826173
-15857.2497666 -186969.824877 -10354.1110879
-46461.1876822 -256931.794725 -30541.6478839
-66215.8633171 -234628.331204 -43099.4313359
-62782.0717315 -233675.690999 -41164.0642323
-519.183749143 -144326.850967 -164.465363295
828.808054651 -174813.991219 945.626978221
-25182.6458137 -180555.329242 -16023.0419163
-11663.7132677 -155382.048065 -7311.92237233
-34049.3625475 -148378.877774 -22083.2688212
-43107.2208581 -128238.157398 -28228.3792935
-19961.6455573 -131542.714839 -12616.6134422
-1327.63622154 -107236.355177 -506.338212069
-41602.5792333 -147000.158873 -26918.9557363
-60750.5362109 -182125.786352 -39585.2284788
-6497.16904418 -122525.402481 -3777.85944124
SCALARS region double
LOOKUP_TABLE default
1
2
3
4
5
6
7
8
9
10
11
12
13
14
15
16
17
18
19
20
21
22
23
24
25
26
27
28
29
30
31
32
33
34
35
36
37
38
39
40
41
42
43
44
45
46
47
48
49
50
51
52
53
54
55
56
57
58
59
60
