# vtk DataFile Version 2.0
VTK exported mesh
ASCII
DATASET UNSTRUCTURED_GRID
POINTS 32 double
-1.75717484951 -0.785249650478 -0.745448708534 
-0.466719180346 -0.535328865051 -1.92500138283 
-0.459479510784 -1.68947279453 -1.08425951004 
-1.18173146248 -1.66639268398 0.0750231966376 
-1.4526424408 -0.182198137045 -1.40208077431 
0.259798407555 -2.0196723938 0.285624861717 
-2.0182261467 0.320632338524 0.303701251745 
-1.71969628334 -0.843836128712 0.724590659142 
-0.381934136152 -1.64784550667 1.17405986786 
-0.639332532883 -0.974164485931 1.66363215446 
-1.36900639534 -0.206456109881 1.49902057648 
-0.494327515364 0.679041802883 1.89650225639 
0.466719180346 -0.535328865051 1.92500138283 
-1.78161537647 0.740484476089 -0.673742055893 
-0.807958960533 0.807958960533 -1.71725535393 
-1.11010909081 1.66285085678 -0.449578672647 
0.494327515364 0.679041802883 -1.89650225639 
-0.156873434782 1.68331706524 -1.1302639246 
0.376602262259 2.02509737015 -0.162906393409 
-1.30907893181 1.21283745766 1.04155278206 
-0.562163770199 1.86072397232 0.603583574295 
0.368729442358 1.70834255219 1.02598786354 
0.912738442421 -1.76327824593 -0.599266767502 
0.639332592487 -0.974164426327 -1.66363215446 
1.78161525726 -0.740484714508 -0.673741996288 
1.36900639534 -0.206456109881 -1.49902057648 
1.21283733845 -1.30907893181 1.04155290127 
2.01105308533 -0.336420148611 0.355858296156 
1.4526424408 -0.182198137045 1.40208077431 
1.58933568001 0.998449742794 -0.954401671886 
1.71169579029 1.07444548607 0.534872233868 
0.807958960533 0.807958960533 1.71725535393 
CELLS 60 240
3 0 1 2 
3 3 0 2 
3 4 1 0 
3 5 3 2 
3 6 0 7 
3 3 7 0 
3 8 7 3 
3 9 10 7 
3 9 7 8 
3 8 3 5 
3 11 10 9 
3 12 11 9 
3 6 13 0 
3 13 4 0 
3 13 14 4 
3 14 1 4 
3 13 15 14 
3 14 16 1 
3 15 17 14 
3 15 18 17 
3 19 6 10 
3 10 6 7 
3 11 19 10 
3 15 13 6 
3 19 15 6 
3 20 15 19 
3 19 11 20 
3 11 21 20 
3 20 18 15 
3 5 2 22 
3 23 2 1 
3 22 2 23 
3 1 16 23 
3 24 23 25 
3 24 22 23 
3 16 25 23 
3 26 8 5 
3 12 8 26 
3 12 9 8 
3 22 26 5 
3 24 27 22 
3 27 26 22 
3 28 12 26 
3 27 28 26 
3 17 16 14 
3 16 29 25 
3 17 29 16 
3 18 30 29 
3 18 29 17 
3 25 29 24 
3 29 27 24 
3 29 30 27 
3 31 11 12 
3 21 11 31 
3 20 21 18 
3 30 31 28 
3 31 12 28 
3 31 30 21 
3 18 21 30 
3 30 28 27 
CELL_TYPES 60
5
5
5
5
5
5
5
5
5
5
5
5
5
5
5
5
5
5
5
5
5
5
5
5
5
5
5
5
5
5
5
5
5
5
5
5
5
5
5
5
5
5
5
5
5
5
5
5
5
5
5
5
5
5
5
5
5
5
5
5
POINT_DATA 32
SCALARS curvature double
LOOKUP_TABLE default
0.419597949416
0.465662150678
0.477161308667
0.525880249674
0.663570153976
0.523181325278
0.460542849999
0.470594987903
0.45338589987
0.504753354999
0.527424533388
0.441901783973
0.479578969857
0.562975923584
0.486289882292
0.408813368094
0.490455697061
0.483354943164
0.479089288045
0.556669236174
0.495235228882
0.495898112715
0.458109066376
0.431535024123
0.555247256772
0.655467187052
0.491335554577
0.4282435204
0.481694488454
0.442778937007
0.493853430497
0.545732803414
CELL_DATA 60
SCALARS area double
LOOKUP_TABLE default
1.08911727162
0.874299421804
0.507613527121
0.941435648571
0.869794963764
0.745005571118
0.78667752152
0.566977512669
0.624675556
0.750684066244
0.700139912173
0.904427581599
0.783042175247
0.574900821522
0.708061879961
0.679291037865
0.794902912739
0.865717416679
0.715742464599
0.673561521928
0.889139417488
0.658486114382
0.795510414065
0.612101829715
1.02882833746
0.649654782976
0.698542694657
0.815339950965
0.724393262225
0.791717134027
0.788542101487
0.863883878188
0.904427588707
0.571186349135
0.849368386928
0.700139857762
0.798923522256
1.01093477896
0.526404176535
0.792505548248
0.71027410453
1.21859744822
0.670461340676
0.691073709714
0.7551387676
0.811642750944
1.03824923102
1.20685641377
0.999154265734
0.712678434712
0.983559627934
1.07411086056
0.865717416679
0.786522636549
0.574919357753
0.8573242895
0.679291037865
0.858816870961
0.94191507699
0.820612375864
