# vtk DataFile Version 2.0
VTK exported mesh
ASCII
DATASET UNSTRUCTURED_GRID
POINTS 752 double
-9.70499992371 -0.249687582254 -9.54500007629 
-10 -0.240000069141 -8.62249946594 
-9.99997425079 -0.246394306421 -9.99986076355 
-9.73000049591 -0.249375090003 -8.30999946594 
-9.90999984741 -0.248125106096 -6.94999980927 
-10 0.240000069141 -7.91625022888 
-10 -0.240000069141 -6.28249979019 
-10 0.240000069141 -6.26000022888 
-9.96000003815 -0.247500106692 -5.07999992371 
-10 0.240000069141 -4.85750007629 
-10 -0.240000069141 -4.83500003815 
-9.03999996185 -0.250000089407 -6.92000007629 
-9.68000030518 -0.250000089407 -5.32000017166 
-9.52000045776 -0.250000089407 -6.35999965668 
-8.95999908447 -0.250000089407 -8.95999908447 
-9 -0.250000089407 -5.07999992371 
-8.73999977112 -0.248750090599 -9.86000061035 
-8.68000030518 -0.250000089407 -7.76000022888 
-9.99972343445 0.248923704028 -9.99998855591 
-7.95749998093 -0.240000069141 -10 
-7.43000030518 -0.248125106096 -9.90999984741 
-7.90000009537 -0.250000089407 -5.75999975204 
-7.57999992371 -0.250000089407 -9.29999923706 
-7.76000022888 -0.250000089407 -8.43999958038 
-7.39000034332 -0.250000089407 -7.38000011444 
-6.5 -0.250000089407 -8.13999938965 
-6.86000013351 -0.250000089407 -5.84999990463 
-6.06999969482 -0.248125106096 -9.90999984741 
-5.86999988556 -0.250000089407 -8.90999984741 
-5.81999969482 -0.250000089407 -6.5 
-4.47312498093 -0.240000069141 -10 
-7.35499954224 0.240000069141 -10 
-5.76000022888 -0.250000089407 -5.19999980927 
-5.40250015259 0.240000069141 -10 
-5.13999986649 -0.248750090599 -9.78000068665 
-5.31999969482 -0.250000089407 -7.36000013351 
-10 -0.240000069141 -3.27874994278 
-9.96000003815 -0.247500106692 -3.40000009537 
-9.78000068665 -0.248750090599 -2.46000003815 
-10 0.00749999983236 -1.87000012398 
-10 -0.240000069141 -1.43124985695 
-9.96000003815 -0.247500106692 -1.16000008583 
-10 0.240000069141 -0.09812502563 
-9.96000003815 -0.247500106692 0.40000000596 
-10 -0.240000069141 0.766250014305 
-9.60000038147 -0.250000089407 -4.15999984741 
-9.09000015259 -0.250000089407 -2.75999975204 
-9.26000022888 -0.250000089407 -1.46000003815 
-9.39999961853 -0.250000089407 -0.519999980927 
-9.52000045776 -0.250000089407 0.280000001192 
-8.19000053406 -0.250000089407 -3.67999982834 
-8 -0.250000089407 -4.60000038147 
-8.23999977112 -0.250000089407 -2.53999996185 
-7.33500003815 -0.250000089407 -1.24000000954 
-8 -0.250000089407 -0.239999994636 
-7.03999996185 -0.250000089407 -2.63999986649 
-6.82999992371 -0.250000089407 -4.22000026703 
-7.03999996185 -0.250000089407 -0.239999994636 
-6.03999996185 -0.250000089407 -2.16000008583 
-6.19999980927 -0.250000089407 -0.72000002861 
-5.81999969482 -0.250000089407 0.319999992847 
-5.63999986649 -0.250000089407 -4.48000001907 
-5.76000022888 -0.250000089407 -3.59999990463 
-5.19999980927 -0.250000089407 -2.55999994278 
-5.19999980927 -0.250000089407 -0.680000007153 
-4.72000026703 -0.250000089407 -8.63999938965 
-4.38000011444 -0.250000089407 -7.05000019073 
-4.01999998093 -0.250000089407 -5.88999986649 
-4.44000005722 -0.250000089407 -4.77999973297 
-4.00999975204 0.240000069141 -10 
-4 -0.247500106692 -9.96000003815 
-4.15999984741 -0.250000089407 -9.60000038147 
-3.67999982834 -0.250000089407 -8.19000053406 
-3.19999980927 -0.250000089407 -9.21999931335 
-2.86000013351 -0.250000089407 -6.55999994278 
-2.68000006676 -0.247500106692 -9.96000003815 
-2.28250002861 -0.240000069141 -10 
-2.6875 0.240000069141 -10 
-2.88000011444 -0.250000089407 -8.23999977112 
-2.89999985695 -0.250000089407 -4.93000030518 
-2.17999982834 -0.250000089407 -9.18000030518 
-2.02999997139 -0.250000089407 -7.06999969482 
-1.86000001431 -0.250000089407 -8.18000030518 
-1.60000002384 -0.250000089407 -9.76000022888 
-0.520000040531 -0.248750090599 -9.86000061035 
-1.60000002384 -0.250000089407 -5.76000022888 
-0.587499976158 -0.240000069141 -10 
-0.639999985695 -0.250000089407 -9.03999996185 
-0.639999985695 -0.250000089407 -8.31999969482 
-0.840000033379 -0.250000089407 -7.36000013351 
-0.600000023842 -0.250000089407 -6.19999980927 
-0.519999980927 -0.250000089407 -4.84000015259 
0.380000025034 -0.250000089407 -7.36000013351 
0.620000004768 -0.250000089407 -4.96000003815 
-4.65999984741 -0.250000089407 -3.72000002861 
-4.72000026703 -0.250000089407 -1.60000002384 
-4.15999984741 -0.250000089407 -2.53999996185 
-4.31999969482 -0.250000089407 -0.259999990463 
-3.34000015259 -0.250000089407 -3.55999994278 
-3.36000013351 -0.250000089407 -0.97000002861 
-2.89999985695 -0.250000089407 -2.17999982834 
-3.3599998951 -0.250000089407 0.239999994636 
-2.02999997139 -0.250000089407 -2.63999986649 
-1.90000009537 -0.250000089407 -4.44000005722 
-2.24000000954 -0.250000089407 -0.639999985695 
-1.31000006199 -0.250000089407 -1.18000006676 
-1.10000002384 -0.250000089407 -3.59999990463 
-1.07999992371 -0.250000089407 -0.0799999982119 
-1.08000004292 -0.250000089407 -2.55999994278 
0.159999996424 -0.250000089407 -3.59999990463 
-0.319999992847 -0.250000089407 -2.55999994278 
0 -0.250000089407 -1.60000002384 
0.0399999991059 -0.250000089407 -0.639999985695 
-9.54500007629 -0.249687582254 1.09500002861 
-9.78000068665 -0.248750090599 2.13999986649 
-10 0.240000069141 2.36124992371 
-10 -0.240000069141 2.78999996185 
-9.88500022888 -0.248437598348 3.45499992371 
-10 0.240000069141 3.98000001907 
-10 -0.240000069141 4.7687497139 
-9.73000049591 -0.249375090003 4.82999992371 
-10 0.240000069141 5.34249973297 
-9.23999977112 -0.250000089407 3.51999998093 
-8.87999916077 -0.250000089407 4.60000038147 
-8.68000030518 -0.250000089407 2.07999992371 
-8.55999946594 -0.250000089407 0.659999966621 
-8.07999992371 -0.250000089407 3 
-7.89999961853 -0.250000089407 4.22000026703 
-7.72000026703 -0.250000089407 1.92000007629 
-8.15999984741 -0.250000089407 5.19999980927 
-7.36000013351 -0.250000089407 0.740000009537 
-7.18000030518 -0.250000089407 3.42000007629 
-6.92000007629 -0.250000089407 2 
-5.81999969482 -0.250000089407 1.47000002861 
-6.31999969482 -0.250000089407 3.55999994278 
-6.31999969482 -0.250000089407 4.60000038147 
-7.05999994278 -0.250000089407 5.31999969482 
-5.76000022888 -0.250000089407 2.92000007629 
-4.90000009537 -0.250000089407 2.11999988556 
-5.07999992371 -0.250000089407 4.34000015259 
-9.96000003815 -0.247500106692 6.11999988556 
-10 -0.240000069141 6.27750015259 
-9.78000068665 -0.248750090599 6.94000005722 
-9.99987888336 -0.246337026358 9.99992465973 
-10 0.240000069141 8.03250026703 
-9.71500015259 -0.249062597752 8.03499984741 
-9.99998664856 0.249373465776 9.99968910217 
-9.50500011444 -0.249687582254 9.15499973297 
-9.23999977112 -0.250000089407 6.58999967575 
-8.79999923706 -0.250000089407 5.76000022888 
-8.86000061035 -0.248750090599 9.86000061035 
-8.79500007629 -0.240000069141 10 
-8.63999938965 -0.250000089407 8.31999969482 
-8.06999969482 -0.250000089407 9.1799993515 
-7.73999977112 -0.250000089407 6.5 
-7.80000019073 -0.250000089407 7.84000015259 
-7.28499984741 -0.247812598944 9.93499946594 
-7.22624969482 -0.240000069141 10 
-6.44000005722 -0.250000089407 7.30000019073 
-6.92000007629 -0.250000089407 9.15999984741 
-6.40000009537 -0.250000089407 6.25999975204 
-6.19999980927 -0.250000089407 8.23999977112 
-5.65999984741 -0.250000089407 9.57999992371 
-5.52999973297 -0.250000089407 5.63000011444 
-5.72000026703 -0.240000069141 10 
-5.19999980927 -0.250000089407 7.73999977112 
-5.07999992371 -0.250000089407 8.92000007629 
-4.22000026703 -0.250000089407 1.05999994278 
-4.48000001907 -0.250000089407 3.11999988556 
-3.42999982834 -0.250000089407 2.76999998093 
-3.44000005722 -0.250000089407 4.19999980927 
-4.42000007629 -0.250000089407 5.31999969482 
-3.15999984741 -0.250000089407 1.72000002861 
-2.55000019073 -0.250000089407 0.680000007153 
-2.24000000954 -0.250000089407 1.6400001049 
-2.27999997139 -0.250000089407 2.48000001907 
-2.07000017166 -0.250000089407 3.55999994278 
-1.77999997139 -0.250000089407 5.10999965668 
-3.27999997139 -0.250000089407 5.31999969482 
-1.34000003338 -0.250000089407 1.54999995232 
-1.40000009537 -0.250000089407 2.79999995232 
-0.600000023842 -0.250000089407 1.27999997139 
-0.72000002861 -0.250000089407 3.72000002861 
-0.620000004768 -0.250000089407 4.96000003815 
0.319999992847 -0.250000089407 0.639999985695 
0 -0.250000089407 2.55999994278 
0.239999994636 -0.250000089407 4.03999996185 
-4.53999996185 -0.250000089407 6.7999997139 
-4.91750001907 0.240000069141 10 
-3.79874992371 -0.240000069141 10 
-4.41000032425 -0.248125106096 9.90999984741 
-4.48000001907 -0.250000089407 8.31999969482 
-3.40000009537 -0.250000089407 6.73999977112 
-3.36000013351 -0.250000089407 8 
-3.68000006676 -0.250000089407 9.22000026703 
-3.31999993324 -0.247500106692 9.96000003815 
-3 -0.250000089407 9.68000030518 
-2.59999990463 -0.250000089407 6.31999969482 
-2.31999993324 -0.250000089407 8.79999923706 
-2.08500003815 -0.249062597752 9.75500011444 
-1.50249993801 -0.240000069141 10 
-2.28250002861 0.240000069141 10 
-2.20000004768 -0.250000089407 7.48000001907 
-1.81999993324 -0.250000089407 6.44000005722 
-1.40000009537 -0.250000089407 8.23999977112 
-0.579999983311 -0.248750090599 9.86000061035 
-0.800000011921 -0.250000089407 6.31999969482 
-0.780000030994 -0.250000089407 7.36000013351 
-1.15999996662 -0.250000089407 9.52000045776 
-0.545000016689 0 10 
-0.159999996424 -0.250000089407 9.03999996185 
1.44749987125 -0.240000069141 10 
0.239999994636 -0.250000089407 6.31999969482 
0.259999990463 -0.250000089407 7.51999998093 
-9.85000038147 0.250000089407 -8.39999961853 
-9.93999958038 0.250000089407 -6.53999996185 
-9.60750007629 0.250000089407 -4.75250053406 
-9.26125049591 0.250000089407 -9.83874988556 
-9.11999988556 0.250000089407 -7.19999980927 
-9.30000019073 0.250000089407 -6.25999975204 
-9.15999984741 0.250000089407 -8.47999954224 
-9.03999900818 0.250000089407 -5.31999969482 
-8.46624946594 0.250000089407 -9.55375003815 
-8.19999980927 0.250000089407 -8.97999954224 
-8 0.250000089407 -7.88000011444 
[...]
POINT_DATA 752
SCALARS curvature double
LOOKUP_TABLE default
0.0218238466257
1.84016847167
2.3664736084
0.0242425550021
0.138676230562
2.1349293372
2.05783684254
3.58547442426
0.50221813184
1.52779130108
3.52539222535
0.000532775612612
0.0117207352932
0.00436355336261
0.000892728666016
1.10668142311e-16
0.0510592777948
0.000215319577254
1.57717488985
2.3337344537
0.0941927294058
7.14083334164e-17
0.00212353507525
6.19704457181e-17
6.38665182632e-17
3.13739310766e-16
9.86923318599e-17
0.121637517729
0.000821677651759
6.65057412047e-17
2.18424738779
1.5836855302
6.26697027265e-17
2.51362115682
0.028575309119
2.14122478573e-16
2.03535579086
0.265377729051
0.0554381433324
1.72013792501e-14
2.94935481057
0.258654362512
1.54424119739
0.286536661758
1.89755891998
0.00437591024487
0.00147075358921
0.00116694566009
0.00205193145268
0.00668985444994
1.5212234807e-16
9.88930738653e-17
1.3477937261e-16
3.70865507905e-17
8.53128046757e-17
4.71702263076e-17
2.82849746891e-17
2.13157745953e-16
1.44318255182e-16
1.06985372895e-16
8.1275475947e-17
1.50044383243e-16
8.94801579673e-17
1.91041492273e-16
1.36368706899e-16
0.000202587872782
7.93632134654e-17
2.04354857932e-16
9.68598959381e-17
1.89040353691
0.28117757555
0.00543433070297
2.81250918091e-16
0.00184895544816
1.71361162428e-16
0.197082226827
2.36293323426
2.31145351024
3.07344296771e-16
6.65349146098e-17
0.000729458386606
1.76798366182e-17
0
0.045653695755
0.0598679700878
7.87656130645e-17
2.07297477069
0.000796838759481
3.58859473538e-16
2.01616401585e-16
3.8879165064e-17
3.62281249548e-17
4.23426064964e-17
6.73760870995e-17
2.22044621583e-17
0
3.87945716954e-17
1.59810783194e-16
6.93750622061e-17
1.1960321351e-16
1.0440314992e-16
1.11212110696e-17
3.80566610082e-17
1.26768254164e-16
9.56165634478e-17
1.63060280256e-16
1.56406574914e-16
8.80746665776e-17
1.7570076105e-16
5.48168026459e-17
1.10996936905e-16
6.78990911512e-17
1.91218372197e-16
0.012755789563
0.0333701017568
2.26903838843
2.29745404134
0.103397539036
1.64571925867
2.15787116078
0.0236709204832
1.87084345039
0.00125478503069
0.000461200601542
0.000490060362182
7.48472782527e-05
1.23862477468e-16
9.9183463028e-17
7.21416045822e-17
2.55969169792e-16
0
3.12593252623e-16
1.88766688346e-16
6.96122791584e-17
8.99162022296e-17
1.68800064116e-16
1.13661291302e-16
8.28528918254e-17
8.45054365131e-17
6.28843486917e-17
0.253455496988
2.22978088717
0.0762541863232
1.36632061525
1.48788788728
0.00597180597556
2.28582061228
0.0046521121223
0.0015354837043
0.000223806711079
0.0723946176429
3.13712466157
0.000488418021487
0.00134198430746
0
1.48222145791e-17
0.130119457162
3.6495764833
2.84813696809e-16
0.00130090955539
2.01657131451e-16
1.48934637566e-16
0.017153909399
3.89402636404e-17
1.52799823555
7.46894451395e-17
0.000523573546105
1.57489368004e-16
9.94418972595e-17
6.42291956486e-17
1.18979589178e-16
3.65912626165e-17
2.14105939291e-16
7.4872178441e-17
1.67697262412e-16
3.44297977944e-17
3.99408684375e-17
2.90847507853e-17
9.07836049564e-17
2.60373673104e-16
9.70536280473e-17
4.15450484583e-16
1.58097243519e-16
7.3284637021e-17
3.81188103472e-17
6.08772899582e-17
1.81635023359e-16
9.0424766795e-18
2.37944446701
2.28860813603
0.0903533384468
2.548279626e-16
4.43225181123e-17
1.12264698709e-16
0.00128975876791
0.354189848983
0.0104000959804
2.36831924812e-16
0.000277933884288
0.0384475885653
2.91874739023
1.9757074951
4.30119397587e-17
3.10867042025e-16
2.15037858642e-16
0.0796258626415
1.93887796436e-16
2.2564068065e-16
0.00263569055913
1.67088952116e-14
0.000503064601015
2.14335097783
6.65631881026e-17
2.19759083416e-16
0.0654882289496
0.193053447834
0.0207106501242
0.0173935745527
1.68868281936e-16
1.37293379873e-16
2.42363076956e-16
1.53004029935e-16
0.00863230514925
3.64709833453e-16
1.4194282929e-16
3.31317566611e-17
0.0129883450094
1.28440405264e-16
0.208107409649
1.39781335298e-16
2.17301077058e-16
2.4453248683e-16
1.5920164984e-16
1.92985370519e-16
6.34993652815e-17
3.32914638493e-17
2.58456045013e-16
0.0409230463554
0.0161117625301
2.7723377596
0.994120155968
0.255251797654
1.12556425555e-15
0.00338543146505
1.25906226938e-16
1.65553793104e-16
3.0114361467e-16
1.162122875e-16
0.0109907608354
7.84793896337e-17
8.28431813294e-17
1.21858389402e-16
8.22590677287e-17
1.85540097854e-16
1.11058781202e-16
7.33811770744e-17
1.92327094556e-16
6.25596583139e-17
1.39209028926e-16
3.01410825871e-16
9.41340050954e-17
1.40421463448e-16
1.2878057563e-16
1.77836556438e-16
7.88979383381e-17
0.0487114062087
5.6198133824e-17
7.57279500878e-17
2.96533926359e-17
9.46815339199e-17
8.39074600711e-17
1.47303256896e-16
1.47059941054e-16
1.45598250984e-16
0.102239407008
1.41641117912e-16
2.35344242555e-16
1.21171435371e-16
4.99039832272e-16
1.53538051481e-17
8.39627033241e-17
2.71723200472e-16
0.0114619379787
1.39227977969
3.65890921589e-17
0
7.38717292377e-17
0.00859372156954
6.36965912172e-17
1.49504130382e-16
2.26841189509e-16
1.33337685507e-17
0
5.92776832353e-17
1.86678328375e-16
4.80158722644e-17
2.75822763072e-16
9.07359033613e-17
5.28690987652e-17
9.50256877586e-17
5.01576504177e-17
1.55735883847e-16
1.28240610545e-16
8.81438854602e-17
1.04189216952e-16
1.50991754963e-16
9.49620320409e-17
0.00399491028199
0.0872509156673
0.046394089896
0.00851327465893
0.0467111892755
2.00597417211e-16
2.9639675304e-17
1.1317811285e-16
1.68267704642e-16
8.93788267485e-17
1.35457992954e-16
1.94503230906e-16
2.3876100199e-16
9.63724189836e-17
1.56270420133e-16
1.81106987696e-16
1.01363297219e-16
9.52760391962e-17
6.0600806249e-17
5.85871863402e-17
7.09861663492e-17
2.67411923929e-16
0.101790560539
8.25036554085e-17
0.00399343320767
0.0176453978566
1.75289678469
0.0254613874238
8.01339847105e-16
0.000585572970368
8.31063380726e-17
0.0715466003272
1.40545091346e-16
0.000943782110324
0.00724716190056
1.26988156555e-16
5.57738553744e-05
4.9227976206e-17
4.77063970243e-17
0.000782689962116
0.123803665068
1.57057812646e-16
0.0291016386106
1.04182416391e-16
3.95341038726e-17
4.728270213e-18
1.25222389438e-16
1.1115824016e-16
2.06279399194e-17
3.33573969075e-17
6.47952321224e-17
8.25109174258e-17
1.08688487854e-16
0
3.13335233195e-17
1.97216381466e-17
1.18501825202e-16
6.29435103853e-17
0
1.80307219069e-16
1.85160607961e-17
1.59708279485e-16
6.63949622556e-17
0.000165774424797
0.00676912409072
0.321195877973
2.57142839943
3.26853940755e-16
6.79948754322e-16
0.0226917877765
7.29506461585e-17
9.62752309846e-17
3.04400300552e-16
7.79213294747e-17
0.0263510159589
8.91800229286e-17
1.05264344444e-16
0.0485153777095
4.76822601807e-17
0.00029419017296
3.04401637857
1.21800868094e-16
0.000686158013041
0.104081920713
1.44409877985e-16
3.55263749328e-17
0.0603343986839
2.17265911193
0.000818011238096
2.20630367616e-16
1.84233572127e-16
0.324804637798
5.91492715562e-17
1.53878411601e-16
1.16078157252e-16
0.00200241776739
3.02437170855e-17
1.84684291349
2.20864439259e-16
0.0282210247555
2.58274776633e-16
3.53242622088e-16
0.000451988789567
6.21115306824e-17
0.334334980749
3.53981040877
1.70384622177
1.86594389941e-16
0.00191228618682
9.05702812504e-17
2.33182450992e-16
8.37402139044e-17
2.07681271642e-16
2.38108273296e-16
7.54842634813e-17
8.23169953766e-17
1.21685498194e-16
3.43109767596e-16
4.78379407987e-17
7.95915541662e-17
2.2401625993e-16
7.24996781186e-17
1.12061421524e-16
8.8623217081e-17
4.13078516047e-17
3.76457115729e-17
1.8172015616e-16
1.68625519995e-16
1.66545811333e-16
1.54612794752e-16
1.71025850366e-16
6.49126756602e-17
0.216871390831
1.80103969441
0.00224147214071
1.75706473252e-16
2.30931467884e-16
1.31641864317e-16
4.04338255918e-17
0.00267768345089
0.102659780228
1.58979838623
1.75459960184
3.93740548295e-16
3.95358396246e-17
0.00373373779058
0.00011526391063
1.32661290344e-16
0.0101480156796
1.64968411865
0.00163268457774
0.00343948341453
0.0030715420156
1.49651868291
0.108500711682
0.074841451976
2.69587343248
2.65031900699
3.02297917301e-05
2.10071537777
9.69364770095e-15
0.356490786136
2.3071207471
5.1608202328e-17
5.38960660808e-16
1.62047934921e-16
1.00260495552e-16
2.24704694492e-16
8.56036402161e-17
2.22578754142e-17
1.00474908265e-16
1.6539442152e-16
1.64941423185e-16
2.64787710988e-16
0.000123474512422
1.23780206938e-16
9.94482223573e-17
0.00249898575207
7.27383992403e-05
0.0179740194906
0.00538046415733
0.0157082727771
2.51939650457
0.422210469055
2.2962306242
1.25783977305
0.269035315306
2.08596927661
2.43552841766
0.407503843137
0.787793803103
2.43245319143
2.61624615338
3.92591662737e-17
4.30541510437e-17
1.96922378371e-16
1.07690878485e-16
1.03422647991e-16
5.14441303809e-17
9.74043158497e-17
6.8185888741e-17
3.96618567925e-16
3.88900583537e-17
2.10461568345e-16
5.98834394413e-17
2.11734535292e-16
2.26516545886e-17
1.12194869656e-16
8.36657758393e-17
1.15227675891e-16
3.50134073465e-16
6.39418911589e-17
2.6844648943e-17
0.0685067304722
0.00100144849749
2.09557712799e-16
0.000209611876277
3.44447399171e-17
0.0604772042669
0.000161722223
3.48072170519
3.58166493665e-16
7.06467203279e-17
0.0104599070624
1.38863819166
4.19479165338e-17
3.58958757303e-17
5.48462892906e-05
0.103846729533
0.002349101133
2.01115653969
3.28124482273
2.18731902646e-16
0.434833030949
3.99285095648e-06
0.00257603899363
5.06807191454e-17
2.58083193551e-16
1.28107707362e-16
4.72843322178e-17
1.42614272624e-16
1.92570647223e-16
2.09286526402e-17
4.2462625478e-17
0
0.000432052395302
1.41296429223e-16
0
0.00478093409435
0.0366656990258
0.00436193959167
1.83631318517
2.22166597457
0.357984736301
2.61432592329
1.94618856474
0.365372953102
2.5513406403
7.50286044721e-17
5.75409030819e-17
2.05608242082e-16
0.000445148518159
0.00868241018637
0.0369653982541
1.02600256387e-16
1.81968757498e-16
1.45336577076
2.12441313282
0.000640377365423
0.0189148586302
2.00432144339
9.37244703142e-05
7.84004403361e-05
0.000939238907148
1.4281948097
0.00618035132085
0.00536244029702
0.0192977227542
0.0530720685068
1.80620046854
0.531207705575
2.34242896736
1.54467273456
2.18026835133
0.0740762070214
7.13080372198e-17
7.84499062495e-17
1.47764555715e-16
0.00249109808603
1.84848327877e-16
1.99366794171
2.23096536249e-16
1.47894027093e-16
0.0680248239093
1.30863778105e-16
9.73093223364e-17
3.99705870183e-17
1.00304036519e-16
0.00508642027934
5.66209224953e-17
1.07655427896e-16
8.53969678753e-17
0.133792989149
9.59665704892e-16
1.41116143669e-16
9.80591919162e-17
1.49190739268e-16
1.48916737378e-16
2.50057898717e-16
6.89151464751e-17
1.65305811723e-16
5.45372994251e-17
1.66035337868e-16
1.05952355145e-16
7.72284444974e-17
1.33375167243e-16
1.4748598051e-16
5.01114696565e-17
1.2603762204e-16
3.94722576623e-16
4.56106075587e-17
3.88207975565e-17
3.52775821127e-16
9.72901634559e-17
5.00390637113e-17
2.6279288598e-16
1.1869824573e-16
7.51685968214e-17
5.22982740391e-17
1.34287759526e-16
0.0940658979566
2.96260457999
1.74058255896e-16
5.32855855476e-17
1.33431412147e-16
0.0264254032358
2.33509385235e-16
0.000441116019726
0.000441957573397
0.00111074541941
0.000563370043908
0.00463724041959
0.0205114372546
0.0436832224446
0.133833910411
0.0633729767661
4.45153406155
1.32477041338e-16
1.13309440843e-16
2.77130791454e-17
8.99338229075e-17
3.56685897083e-17
1.36697496352e-16
3.00357926422e-17
0
7.70916716054e-17
1.07034115119e-16
9.73090011741e-17
0.00023165186909
0.00352206923172
1.55961760007e-16
0.00195448550757
0.00318923628397
0.0349146657822
0.0338702795523
0.254710611275
0.356924522919
1.35620925385e-16
1.9187428681e-16
2.69022002634e-16
3.38975263973e-17
6.15341534138e-17
5.55128482863e-17
6.62721525949e-17
1.59550739808e-16
1.35970965448e-16
7.56159048372e-17
1.089722913e-16
0
1.88771073093e-16
2.17831375107e-16
9.50943933261e-17
6.71113537381e-17
1.74480106728e-16
2.5713336685e-16
4.96803366807e-17
1.86165748545e-16
1.39592176825e-16
0.00398856887458
4.31327293384e-16
0.266621561313
2.05038874249e-16
0.00124091832308
0.240432440966
5.45117617412e-17
1.39101927434e-16
1.33737995907e-16
0.00173788474822
0.210155346804
3.31004573057e-16
1.88777735077e-16
2.00376545854e-16
0.00151868781081
0.0862851712872
8.00179159741e-17
4.36179775176e-17
1.56988569847e-16
2.70707758504e-16
1.24228359657e-16
1.27086420856e-16
1.4686075657e-16
1.19863433733e-17
3.78502415511e-17
1.78110683994e-17
2.00898339843e-16
5.94131864167e-17
0.000120597345263
0.000596657788427
0.00108872371651
0.0106274129254
0.00270145457396
0.0404466521673
0.0379425171965
2.38593618969
0.259814165183
2.35334671087
3.48909467059e-17
8.60237845814e-17
1.30659587418e-16
0.00559537701116
7.81993824712e-17
0.00490871416701
4.92592453392e-17
0.122937747802
5.70501131548e-17
3.12931980702e-16
0.0231490716211
9.86047110597e-17
0.00065767279875
0.000374690507335
0.00926042076009
0.00615915886822
0.0242443090152
0.0441604078236
0.524859531029
CELL_DATA 1500
SCALARS area double
LOOKUP_TABLE default
0.203185253762
0.170730970729
0.211827512523
0.561600083971
0.105728397846
0.397500114515
0.0678661671212
0.347400040573
0.0294544638431
0.594301265558
0.255809711793
0.250001495598
0.467351025411
0.250801047024
0.372799985123
0.265934636514
0.5530000902
0.540000003995
0.505836361961
0.14306355435
0.399601230457
0.45280049057
0.0723459367221
1.02559997978
0.395802092415
0.583601451173
0.562799336624
0.64719901352
0.613399635887
0.610200037765
1.21920003729
0.568799945068
0.612299766731
0.819450129795
0.0614490194561
0.680001500466
0.550802867603
0.78120023613
0.988199879455
0.967850538158
0.157434802262
0.836250240915
0.695500213623
0.468599988514
0.145709896859
0.452000775327
0.700000197887
0.702400024033
0.373500130489
0.0341854940771
0.0316673713415
0.0299369067906
0.228628199336
0.203385050681
0.0506683000856
0.270274338274
0.031743678183
0.527400121039
0.0447158491126
0.172006032082
0.302406972194
0.445803691172
0.35130114718
0.42800242764
0.308002316222
0.436804705596
0.168802806247
0.384800286484
0.792600080872
0.864599900627
0.423001054974
0.603999639511
0.505600361252
0.490000071526
0.57120011692
1.15170009451
0.677599774355
1.03565011503
0.681499851704
0.825249790907
0.848949792194
0.697599663639
0.57430047102
1.01770069819
0.480000026226
0.770799914432
0.490800105874
0.528000122279
0.886749653339
0.443999927998
0.508000061035
0.910400023079
0.787199814606
0.858800156069
0.548800107193
0.723200027275
0.512400004363
0.598800941419
0.816999388218
0.481699868011
0.93420006113
1.12710001268
0.845400347328
0.33420019241
0.0655438659164
0.190804446469
0.520801081591
0.694599275971
0.625200500298
0.750300092411
0.203203996923
0.58559969368
1.03790040693
0.793400158024
0.0268600324467
0.0445759547527
0.525750140019
0.31740003193
0.488403240776
0.399999547005
0.931999756575
0.38780219871
0.493399921989
0.489249542475
0.885550198031
0.500400141096
0.571200320172
0.0615221921471
0.371201312376
0.163829022632
0.653299817872
1.04289974473
0.406800129783
0.118881000963
0.436800967086
0.487199981499
0.554400148964
0.632399903631
0.571599803829
0.635800297689
0.749599631214
0.697599820995
0.725000211
0.585599760437
0.707600231671
0.779999792576
0.449999842644
0.476800201607
0.605600237274
0.499199913311
0.741599757338
0.60299978447
0.608600016975
0.494399948692
0.505599967861
0.717199635792
0.738799842548
0.815600151443
0.785199932861
0.823200088072
1.02190026817
0.790199982929
0.845099948549
0.580799830389
0.701500047207
0.792800144863
0.753500018358
0.677600048685
1.23880023594
0.800699822235
0.894299871993
0.733499983191
0.774600098515
0.573600049683
0.493199946213
0.850800165367
0.739600205803
0.664699883747
0.781200168777
0.395200011539
0.364799993229
0.855599962497
0.637200053695
0.680400033212
0.655199986506
0.0899598448401
0.276416412522
0.485700127336
0.222787803262
0.110669914489
0.474900077304
0.114083715073
0.180992549037
0.327000025541
0.177802673908
0.438401598895
0.427501566908
0.500401005463
0.567700562361
0.775200939629
0.406800545526
0.395950377283
0.673250262784
0.708399722612
0.68960006752
0.754400139427
0.59760008564
0.671999948502
0.430799493027
0.562399667001
0.722399659252
0.48960003891
0.511199816513
0.470400020695
0.486400130844
0.578400165176
0.561599701309
0.687400179452
0.885500279784
0.80960024395
0.628800464821
0.44720050602
0.768800030899
0.709399519539
0.813400160408
0.628799649429
0.647499909401
0.615199694443
0.644800152969
0.181298108514
0.362100209603
0.0307008240809
0.0307460814952
0.409671596981
0.89894282616
0.219839023952
0.487579188318
0.365855529649
0.518454236843
0.252901499823
0.502200813902
0.590550653659
0.307026443102
0.446935679208
0.0844918407681
0.844376097856
0.572075591713
0.60992506794
0.497776522451
0.39359959259
0.602699632454
0.870599269295
0.565127522111
0.108030447834
0.533599773788
1.00230010529
0.497999307633
0.0513517507043
0.554599700356
0.68980006237
0.895000081062
0.767799355698
0.441976515948
0.708999949455
0.692000124931
0.703999839783
0.880000152588
0.564901682018
0.665499743938
0.616800027561
0.730800236893
0.330700839862
0.0493058335018
0.741299802017
1.02180014915
0.65360038414
0.52999985218
0.620000123978
0.566799939346
0.919999699593
0.598000137329
0.840800232124
0.570200038362
1.01899978316
0.708599656963
0.608599979573
1.0001000761
0.598500088692
0.958400041199
0.849799661827
0.749000006676
0.718400304204
0.645600200319
0.555399783245
0.453999962568
0.564599905396
0.651449845839
0.976349728012
0.856799926233
0.602799843785
0.384799895477
1.15454976006
0.852400101295
1.09925013889
0.375999902725
0.441599938536
0.445950064349
0.559799977732
0.567999977142
0.566600082779
0.82900008893
0.920749767899
0.779199961889
0.554599993014
0.86780005188
0.725600108528
0.795199931073
0.672000035226
0.579200018513
0.646199692535
0.851399699307
0.461100215235
0.272475898007
0.0868080123113
0.802799749088
0.529799852562
0.390000023842
0.508200380118
0.839999918938
0.71940004406
0.860799884033
0.632000139236
0.510000267029
0.5925012856
0.394301999698
0.0340340208341
0.638399993515
0.80940011797
0.168803028682
0.542800135326
0.762400112248
0.455600420857
0.140105817836
0.211081697502
0.0467252668491
0.551100155333
0.821400019979
0.548000225544
0.741200176525
0.73439963398
0.428100726926
0.521100142145
0.428400045967
0.573599597359
0.15392877245
0.675900146997
0.715599996471
0.587599781656
0.656000184059
0.46930082363
0.225401584243
0.323400085157
0.531600185299
0.775299811971
0.697600414658
0.793599903727
0.309200988241
0.206902017294
0.354000079095
0.707199825931
0.539200242329
0.823999973297
0.341116381176
0.503248511578
0.156432752577
0.118098698283
0.0503732227301
0.333464485564
0.336600133592
0.0426556694734
0.578704297897
0.732899846649
0.325999793053
0.52544930594
0.472819253349
0.44320024662
0.3405007447
0.213273519612
0.525675751519
0.34196266315
0.335764173445
0.637422163973
0.577999698639
0.730399770355
0.584000063896
0.650000329018
0.239430041802
0.739200020599
0.781599338913
0.283406377315
0.196927462535
0.458749651909
0.730800027084
0.875300659847
0.803999391556
0.791999977112
0.748800002289
0.60540013752
0.341300164413
0.0593833579684
0.558799601746
0.595999578476
0.807600276375
0.718000652313
0.68500035286
0.832999422073
0.148718823951
0.482200157928
0.471200231361
0.176333215872
0.349431728933
0.0108241575327
0.532200146455
0.25905473945
0.0791165737673
0.27673750585
0.295493066053
0.119826313259
0.172721231983
0.232130849937
0.233030996673
0.579075433302
0.786250072718
0.913962566501
0.422550177675
0.685625267737
0.527774957753
0.558000373065
0.456525633147
0.60217472276
0.630799378586
0.648799840164
0.527999894142
0.625599599504
0.669599638069
0.550799731743
0.568399936295
0.915999845505
0.946599480176
0.626399873352
0.820000024438
0.530400161362
0.450800265503
0.754200354385
0.508800221634
0.409800141048
0.531600185299
0.53040023706
0.491399825669
0.480499939442
0.584199820328
0.597299893093
0.595199913788
0.879799914551
0.582599911594
0.460599924946
0.548400079346
0.525199924517
0.707199825931
0.187271341376
0.402800166321
0.55999956131
0.711399620628
0.448999954224
0.160288515534
0.881599939728
0.728400031662
0.953600536728
0.607999898911
0.470900196171
0.410200421619
0.587600147629
0.748800002289
0.592799784851
0.639399991608
0.090698584295
0.152230851759
0.752400004959